 Gaussian 09, Revision C.01,
 Gaussian 09:  EM64L-G09RevC.01 23-Sep-2011

 ---------------------------------------------
 # opt B3LYP/6-31G* freq=noraman int=ultrafine
 ---------------------------------------------

 99/9=1/99;
 --------------
 ethylene anion
 --------------
 Charge = -1 Multiplicity = 2

 SCF Done:  E(UB3LYP) =  -78.4674811795     A.U. after   12 cycles
 SCF Done:  E(UB3LYP) =  -78.4762402586     A.U. after   11 cycles
 SCF Done:  E(UB3LYP) =  -78.4762870976     A.U. after    8 cycles
 SCF Done:  E(UB3LYP) =  -78.4762935182     A.U. after    7 cycles
 Optimization completed.
    -- Stationary point found.
 Normal termination of Gaussian 09 at Fri Apr  9 20:37:35 2021.

 --------------------------------------------------------------------
 #N Geom=AllCheck Guess=TCheck SCRF=Check GenChk UB3LYP/6-31G(d) Freq
 --------------------------------------------------------------------

 Structure from the checkpoint file:  ethylene-anion.chk
 --------------
 ethylene anion
 --------------
 Charge = -1 Multiplicity = 2

                         Standard orientation:
 ---------------------------------------------------------------------
 Center     Atomic      Atomic             Coordinates (Angstroms)
 Number     Number       Type             X           Y           Z
 ---------------------------------------------------------------------
      1          6           0        0.000000    0.000000    0.722320
      2          6           0        0.000000    0.000000   -0.722320
      3          1           0        0.000000    0.925598    1.302196
      4          1           0        0.000000   -0.925598    1.302196
      5          1           0        0.000000    0.925598   -1.302196
      6          1           0        0.000000   -0.925598   -1.302196
 ---------------------------------------------------------------------

 SCF Done:  E(UB3LYP) =  -78.4762935182     A.U. after    1 cycles

 The electronic state is 2-B2G.
 Alpha  occ. eigenvalues --   -9.87439  -9.87404  -0.43287  -0.30290  -0.16607
 Alpha  occ. eigenvalues --   -0.10500  -0.08386   0.02451   0.20318
 Alpha virt. eigenvalues --    0.35676   0.37866   0.38980   0.46551   0.56261
 Alpha virt. eigenvalues --    0.78594   0.81503   0.82937   0.88350   0.90563
 Alpha virt. eigenvalues --    0.92924   1.13248   1.13977   1.18433   1.20203

  Beta  occ. eigenvalues --   -9.86753  -9.86714  -0.41473  -0.28277  -0.16106
  Beta  occ. eigenvalues --   -0.09978  -0.07982   0.07777
  Beta virt. eigenvalues --    0.31954   0.36437   0.38869   0.39133   0.46876
  Beta virt. eigenvalues --    0.57147   0.79021   0.81621   0.86346   0.92173
  Beta virt. eigenvalues --    0.92757   0.93979   1.13815   1.14174   1.19288

 Mulliken atomic charges:
              1
     1  C   -0.442857
     2  C   -0.442857
     3  H   -0.028571
     4  H   -0.028571
     5  H   -0.028571
     6  H   -0.028571
 Sum of Mulliken atomic charges =  -1.00000

 Dipole moment (field-independent basis, Debye):
    X=              0.0000    Y=              0.0000    Z=              0.0000  Tot=              0.0000
 Quadrupole moment (field-independent basis, Debye-Ang):
   XX=            -19.5829   YY=            -16.2182   ZZ=            -20.2998
   XY=              0.0000   XZ=              0.0000   YZ=              0.0000

  Exact polarizability:  10.013   0.000  25.032   0.000   0.000  36.518
 Approx polarizability:  12.969   0.000  31.090   0.000   0.000  44.062

 ******    3 imaginary frequencies (negative Signs) ******

                     1                      2                      3
                    B2G                    B3U                    AU
 Frequencies --  -749.6563              -607.7198              -198.6926
 Red. masses --     1.4897                 1.1607                 1.0078
 Frc consts  --     0.4933                 0.2526                 0.0234
 IR Inten    --     0.0000               201.3348                 0.0000

                     4                      5                      6
                    B2U                    B3G                    AG
 Frequencies --   755.8315              1172.6986              1200.2729
 Red. masses --     1.0437                 1.4880                 2.2814
 Frc consts  --     0.3513                 1.2057                 1.9365
 IR Inten    --     0.1609                 0.0000                 0.0000

                     7                      8                      9
                    B1U                    AG                     B1U
 Frequencies --  1438.4866              1522.7335              3063.6192
 Red. masses --     1.1143                 1.4553                 1.0457
 Frc consts  --     1.3585                 1.9882                 5.7825
 IR Inten    --     3.5249                 0.0000               179.9689

                    10                     11                     12
                    AG                     B3G                    B2U
 Frequencies --  3094.8785              3114.8484              3144.1479
 Red. masses --     1.0612                 1.1081                 1.1165
 Frc consts  --     5.9886                 6.3342                 6.5029
 IR Inten    --     0.0000                 0.0000               320.7762

 - Thermochemistry -
 -------------------
 Temperature   298.150 Kelvin.  Pressure   1.00000 Atm.
 Atom     1 has atomic number  6 and mass  12.00000

 Molecular mass:    28.03130 amu.
 Principal axes and moments of inertia in atomic units:
                           1         2         3
     Eigenvalues --    12.33355  69.12816  81.46171
           X            0.00000   0.00000   1.00000
           Y            0.00000   1.00000   0.00000
           Z            1.00000   0.00000   0.00000
 This molecule is an asymmetric top.
 Rotational symmetry number  4.
 Rotational temperatures (Kelvin)      7.02262     1.25295     1.06325
 Rotational constants (GHZ):         146.32780    26.10718    22.15447
    3 imaginary frequencies ignored.
 Zero-point vibrational energy     110699.5 (Joules/Mol)
                                   26.45782 (Kcal/Mol)
 Vibrational temperatures:   1087.47  1687.25  1726.92  2069.66  2190.87
          (Kelvin)           4407.86  4452.83  4481.57  4523.72

 Zero-point correction=                           0.042163 (Hartree/Particle)
 Thermal correction to Energy=                    0.045134
 Thermal correction to Enthalpy=                  0.046078
 Thermal correction to Gibbs Free Energy=         0.020521
 Sum of electronic and zero-point Energies=            -78.434130
 Sum of electronic and thermal Energies=               -78.431159
 Sum of electronic and thermal Enthalpies=             -78.430215
 Sum of electronic and thermal Free Energies=          -78.455772

                     E (Thermal)             CV                S
                      KCal/Mol        Cal/Mol-Kelvin    Cal/Mol-Kelvin
 Total                   28.322              7.278             53.789
 Electronic               0.000              0.000              1.377
 Translational            0.889              2.981             35.927
 Rotational               0.889              2.981             16.125
 Vibrational             26.545              1.317              0.360

 Optimization completed.
    -- Stationary point found.
 Normal termination of Gaussian 09 at Fri Apr  9 20:37:38 2021.
