 Gaussian 09, Revision C.01,
 Gaussian 09:  EM64L-G09RevC.01 23-Sep-2011

 ---------------------------------------------
 # opt B3LYP/6-31G* freq=noraman int=ultrafine
 ---------------------------------------------

 99/9=1/99;
 ----------------
 ethylene neutral
 ----------------
 Charge =  0 Multiplicity = 1

 SCF Done:  E(RB3LYP) =  -78.5870403230     A.U. after    9 cycles
 SCF Done:  E(RB3LYP) =  -78.5874454202     A.U. after    7 cycles
 SCF Done:  E(RB3LYP) =  -78.5874578385     A.U. after    6 cycles
 SCF Done:  E(RB3LYP) =  -78.5874586868     A.U. after    5 cycles
 Optimization completed.
    -- Stationary point found.
 Normal termination of Gaussian 09 at Fri Apr  9 18:58:10 2021.

 --------------------------------------------------------------------
 #N Geom=AllCheck Guess=TCheck SCRF=Check GenChk RB3LYP/6-31G(d) Freq
 --------------------------------------------------------------------

 Structure from the checkpoint file:  ethylene-neutral.chk
 ----------------
 ethylene neutral
 ----------------
 Charge =  0 Multiplicity = 1

                         Standard orientation:
 ---------------------------------------------------------------------
 Center     Atomic      Atomic             Coordinates (Angstroms)
 Number     Number       Type             X           Y           Z
 ---------------------------------------------------------------------
      1          6           0        0.000000    0.000000    0.665479
      2          6           0        0.000000    0.000000   -0.665479
      3          1           0        0.000000    0.923604    1.239574
      4          1           0        0.000000   -0.923604    1.239574
      5          1           0        0.000000    0.923604   -1.239574
      6          1           0        0.000000   -0.923604   -1.239574
 ---------------------------------------------------------------------

 SCF Done:  E(RB3LYP) =  -78.5874586868     A.U. after    1 cycles

 The electronic state is 1-AG.
 Alpha  occ. eigenvalues --  -10.18428 -10.18338  -0.75474  -0.57733  -0.46467
 Alpha  occ. eigenvalues --   -0.41640  -0.35321  -0.26663
 Alpha virt. eigenvalues --    0.01878   0.12236   0.14025   0.15756   0.24405
 Alpha virt. eigenvalues --    0.33236   0.48035   0.54846   0.56856   0.63727
 Alpha virt. eigenvalues --    0.65523   0.69902   0.84749   0.87218   0.93170

 Mulliken atomic charges:
              1
     1  C   -0.285455
     2  C   -0.285455
     3  H    0.142727
     4  H    0.142727
     5  H    0.142727
     6  H    0.142727
 Sum of Mulliken atomic charges =   0.00000

 Dipole moment (field-independent basis, Debye):
    X=              0.0000    Y=              0.0000    Z=              0.0000  Tot=              0.0000
 Quadrupole moment (field-independent basis, Debye-Ang):
   XX=            -15.0314   YY=            -12.1181   ZZ=            -11.9973
   XY=              0.0000   XZ=              0.0000   YZ=              0.0000

  Exact polarizability:   8.511   0.000  20.408   0.000   0.000  30.781
 Approx polarizability:  11.018   0.000  25.282   0.000   0.000  46.719

                     1                      2                      3
                    B2U                    B2G                    B3U
 Frequencies --   834.8757               956.1687               976.1504
 Red. masses --     1.0427                 1.5207                 1.1607
 Frc consts  --     0.4282                 0.8192                 0.6517
 IR Inten    --     0.7351                 0.0000                82.9925

                     4                      5                      6
                    AU                     B3G                    AG
 Frequencies --  1070.0786              1247.9839              1395.7953
 Red. masses --     1.0078                 1.5257                 1.2269
 Frc consts  --     0.6799                 1.4000                 1.4083
 IR Inten    --     0.0000                 0.0000                 0.0000

                     7                      8                      9
                    B1U                    AG                     B1U
 Frequencies --  1494.3146              1720.1842              3151.7635
 Red. masses --     1.1119                 3.1115                 1.0478
 Frc consts  --     1.4629                 5.4247                 6.1322
 IR Inten    --     5.2400                 0.0000                18.7289

                    10                     11                     12
                    AG                     B3G                    B2U
 Frequencies --  3167.2129              3222.0833              3247.6373
 Red. masses --     1.0737                 1.1149                 1.1176
 Frc consts  --     6.3459                 6.8199                 6.9452
 IR Inten    --     0.0000                 0.0000                33.5502

 - Thermochemistry -
 -------------------
 Temperature   298.150 Kelvin.  Pressure   1.00000 Atm.
 Atom     1 has atomic number  6 and mass  12.00000

 Molecular mass:    28.03130 amu.
 Principal axes and moments of inertia in atomic units:
                           1         2         3
     Eigenvalues --    12.28046  60.07586  72.35632
           X            0.00000   0.00000   1.00000
           Y            0.00000   1.00000   0.00000
           Z            1.00000   0.00000   0.00000
 This molecule is an asymmetric top.
 Rotational symmetry number  4.
 Rotational temperatures (Kelvin)      7.05298     1.44174     1.19705
 Rotational constants (GHZ):         146.96034    30.04104    24.94241
 Zero-point vibrational energy     134485.7 (Joules/Mol)
                                   32.14285 (Kcal/Mol)
 Vibrational temperatures:   1201.20  1375.71  1404.46  1539.60  1795.57
          (Kelvin)           2008.24  2149.98  2474.96  4534.68  4556.91
                             4635.85  4672.62

 Zero-point correction=                           0.051223 (Hartree/Particle)
 Thermal correction to Energy=                    0.054265
 Thermal correction to Enthalpy=                  0.055209
 Thermal correction to Gibbs Free Energy=         0.030348
 Sum of electronic and zero-point Energies=            -78.536236
 Sum of electronic and thermal Energies=               -78.533194
 Sum of electronic and thermal Enthalpies=             -78.532250
 Sum of electronic and thermal Free Energies=          -78.557111

                     E (Thermal)             CV                S
                      KCal/Mol        Cal/Mol-Kelvin    Cal/Mol-Kelvin
 Total                   34.052              8.089             52.325
 Electronic               0.000              0.000              0.000
 Translational            0.889              2.981             35.927
 Rotational               0.889              2.981             15.864
 Vibrational             32.274              2.127              0.535

 Optimization completed.
    -- Stationary point found.
 Normal termination of Gaussian 09 at Fri Apr  9 18:58:12 2021.
