 Gaussian 09, Revision C.01,

 --------------------------------------------------------------------
 # B3LYP/6-31+G(d,p) Freq=(SaveNM,noraman) Geom=Checkpoint guess=read
 --------------------------------------------------------------------

 ------------
 neutral form
 ------------
 Structure from the checkpoint file:  neutral.chk
 Charge =  0 Multiplicity = 1

 SCF Done:  E(RB3LYP) =  -78.5996312456     A.U. after    8 cycles
 Normal termination of Gaussian 09 at Fri Apr  9 20:58:23 2021.

 --------------------------------------------------------------------
 # B3LYP/6-31+G(d,p) Freq=(SaveNM,noraman) Geom=Checkpoint guess=read
 --------------------------------------------------------------------

 -----
 anion
 -----
 Structure from the checkpoint file:  anion.chk
 Charge = -1 Multiplicity = 2

 SCF Done:  E(UB3LYP) =  -78.5395427421     A.U. after   11 cycles
 ******    1 imaginary frequencies (negative Signs) ******
    1 imaginary frequencies ignored.
 Normal termination of Gaussian 09 at Fri Apr  9 20:58:31 2021.
 Gaussian 09:  EM64L-G09RevC.01 23-Sep-2011

 -------------------------------------------------
 # B3LYP/6-31+G(d,p) Freq=(FC,ReadFCHT) Geom=Check
 -------------------------------------------------

 ---------------
 photoionization
 ---------------
 Structure from the checkpoint file:  fc.chk
 Charge =  0 Multiplicity = 1

                         Standard orientation:
 ---------------------------------------------------------------------
 Center     Atomic      Atomic             Coordinates (Angstroms)
 Number     Number       Type             X           Y           Z
 ---------------------------------------------------------------------
      1          6           0        0.000000    0.000000    0.665479
      2          6           0        0.000000    0.000000   -0.665479
      3          1           0        0.000000    0.923604    1.239574
      4          1           0        0.000000   -0.923604    1.239574
      5          1           0        0.000000    0.923604   -1.239574
      6          1           0        0.000000   -0.923604   -1.239574
 ---------------------------------------------------------------------

 SCF Done:  E(RB3LYP) =  -78.5996312456     A.U. after    8 cycles

 The electronic state is 1-AG.
 Alpha  occ. eigenvalues --  -10.19545 -10.19456  -0.76570  -0.58514  -0.47271
 Alpha  occ. eigenvalues --   -0.42596  -0.35994  -0.27878
 Alpha virt. eigenvalues --   -0.00898   0.02464   0.03242   0.04664   0.06911
 Alpha virt. eigenvalues --    0.08648   0.08726   0.12855   0.15744   0.18086
 Alpha virt. eigenvalues --    0.19111   0.24841   0.34601   0.35182   0.56724

 Mulliken atomic charges:
              1
     1  C   -0.271546
     2  C   -0.271546
     3  H    0.135773
     4  H    0.135773
     5  H    0.135773
     6  H    0.135773
 Sum of Mulliken atomic charges =   0.00000

 Dipole moment (field-independent basis, Debye):
    X=              0.0000    Y=              0.0000    Z=              0.0000  Tot=              0.0000
 Quadrupole moment (field-independent basis, Debye-Ang):
   XX=            -15.9789   YY=            -12.4600   ZZ=            -12.3951
   XY=              0.0000   XZ=              0.0000   YZ=              0.0000

  Exact polarizability:  18.050   0.000  21.211   0.000   0.000  35.068
 Approx polarizability:  21.406   0.000  26.139   0.000   0.000  51.758

                     1                      2                      3
                    B2U                    B2G                    B3U
 Frequencies --   835.4681               970.9994               978.4230
 Red. masses --     1.0428                 1.5207                 1.1607
 Frc consts  --     0.4288                 0.8448                 0.6547
 IR Inten    --     0.9778                 0.0000               119.4873

                     4                      5                      6
                    AU                     B3G                    AG
 Frequencies --  1057.2152              1237.3712              1385.2832
 Red. masses --     1.0078                 1.5266                 1.2154
 Frc consts  --     0.6637                 1.3771                 1.3741
 IR Inten    --     0.0000                 0.0000                 0.0000

                     7                      8                      9
                    B1U                    AG                     B1U
 Frequencies --  1478.7283              1707.0776              3138.4190
 Red. masses --     1.1118                 3.1808                 1.0478
 Frc consts  --     1.4324                 5.4612                 6.0809
 IR Inten    --     7.7338                 0.0000                18.0458

                    10                     11                     12
                    AG                     B3G                    B2U
 Frequencies --  3153.5402              3211.3088              3238.4704
 Red. masses --     1.0746                 1.1145                 1.1176
 Frc consts  --     6.2962                 6.7714                 6.9059
 IR Inten    --     0.0000                 0.0000                28.0021

 - Thermochemistry -
 -------------------
 Temperature   298.150 Kelvin.  Pressure   1.00000 Atm.
 Atom     1 has atomic number  6 and mass  12.00000

 Molecular mass:    28.03130 amu.
 Principal axes and moments of inertia in atomic units:
                           1         2         3
     Eigenvalues --    12.28046  60.07586  72.35632
           X            0.00000   0.00000   1.00000
           Y            0.00000   1.00000   0.00000
           Z            1.00000   0.00000   0.00000
 This molecule is an asymmetric top.
 Rotational symmetry number  4.
 Rotational temperatures (Kelvin)      7.05298     1.44174     1.19705
 Rotational constants (GHZ):         146.96034    30.04104    24.94241
 Zero-point vibrational energy     133935.7 (Joules/Mol)
                                   32.01141 (Kcal/Mol)
 Vibrational temperatures:   1202.05  1397.05  1407.73  1521.09  1780.30
          (Kelvin)           1993.11  2127.56  2456.10  4515.48  4537.24
                             4620.35  4659.43

 Zero-point correction=                           0.051013 (Hartree/Particle)
 Thermal correction to Energy=                    0.054055
 Thermal correction to Enthalpy=                  0.054999
 Thermal correction to Gibbs Free Energy=         0.030138
 Sum of electronic and zero-point Energies=            -78.548618
 Sum of electronic and thermal Energies=               -78.545576
 Sum of electronic and thermal Enthalpies=             -78.544632
 Sum of electronic and thermal Free Energies=          -78.569493

                     E (Thermal)             CV                S
                      KCal/Mol        Cal/Mol-Kelvin    Cal/Mol-Kelvin
 Total                   33.920              8.096             52.325
 Electronic               0.000              0.000              0.000
 Translational            0.889              2.981             35.927
 Rotational               0.889              2.981             15.864
 Vibrational             32.143              2.134              0.534

 Normal termination of Gaussian 09 at Fri Apr  9 20:58:35 2021.
