 Gaussian 09, Revision C.01,

 ------------------------------------------
 # B3LYP/6-31+G(d,p) Freq=SaveNM Geom=Check
 ------------------------------------------

 -----
 anion
 -----
 Structure from the checkpoint file:  anion.chk
 Charge = -1 Multiplicity = 2

 SCF Done:  E(UB3LYP) =  -78.5395427421     A.U. after   13 cycles
 ******    1 imaginary frequencies (negative Signs) ******
    1 imaginary frequencies ignored.
 Normal termination of Gaussian 09 at Fri Apr  9 21:02:02 2021.

 ------------------------------------------
 # B3LYP/6-31+G(d,p) Freq=SaveNM Geom=Check
 ------------------------------------------

 -----
 anion
 -----
 Structure from the checkpoint file:  neutral.chk
 Charge =  0 Multiplicity = 1

 SCF Done:  E(RB3LYP) =  -78.5996312456     A.U. after    8 cycles
 Normal termination of Gaussian 09 at Fri Apr  9 21:02:06 2021.
 Gaussian 09:  EM64L-G09RevC.01 23-Sep-2011

 -------------------------------------------------
 # B3LYP/6-31+G(d,p) Freq=(FC,ReadFCHT) Geom=Check
 -------------------------------------------------

 ---------------
 photoionization
 ---------------
 Structure from the checkpoint file:  fc.chk
 Charge = -1 Multiplicity = 2

                         Standard orientation:
 ---------------------------------------------------------------------
 Center     Atomic      Atomic             Coordinates (Angstroms)
 Number     Number       Type             X           Y           Z
 ---------------------------------------------------------------------
      1          6           0        0.000000    0.000000    0.722320
      2          6           0        0.000000    0.000000   -0.722320
      3          1           0        0.000000    0.925598    1.302196
      4          1           0        0.000000   -0.925598    1.302196
      5          1           0        0.000000    0.925598   -1.302196
      6          1           0        0.000000   -0.925598   -1.302196
 ---------------------------------------------------------------------

 SCF Done:  E(UB3LYP) =  -78.5395427421     A.U. after   13 cycles

 The electronic state is 2-B2G.
 Alpha  occ. eigenvalues --   -9.96464  -9.96427  -0.50931  -0.36828  -0.23307
 Alpha  occ. eigenvalues --   -0.18138  -0.14648  -0.04730   0.12028
 Alpha virt. eigenvalues --    0.17060   0.17577   0.20597   0.22274   0.22320
 Alpha virt. eigenvalues --    0.24968   0.26464   0.30030   0.37638   0.38807
 Alpha virt. eigenvalues --    0.41979   0.52005   0.52243   0.81182   0.84815

  Beta  occ. eigenvalues --   -9.96012  -9.95972  -0.49713  -0.35421  -0.22946
  Beta  occ. eigenvalues --   -0.17725  -0.14324  -0.01247
  Beta virt. eigenvalues --    0.17191   0.17916   0.18668   0.20477   0.22279
  Beta virt. eigenvalues --    0.23087   0.24730   0.29886   0.30667   0.38249
  Beta virt. eigenvalues --    0.38782   0.43153   0.52479   0.52723   0.81625

 Mulliken atomic charges:
              1
     1  C   -0.655206
     2  C   -0.655206
     3  H    0.077603
     4  H    0.077603
     5  H    0.077603
     6  H    0.077603
 Sum of Mulliken atomic charges =  -1.00000

 Dipole moment (field-independent basis, Debye):
    X=              0.0000    Y=              0.0000    Z=              0.0000  Tot=              0.0000
 Quadrupole moment (field-independent basis, Debye-Ang):
   XX=            -29.2142   YY=            -18.5545   ZZ=            -26.9520
   XY=              0.0000   XZ=              0.0000   YZ=              0.0000

  Exact polarizability: 474.779   0.000  25.061   0.000   0.000 115.264
 Approx polarizability: 129.804   0.000  30.555   0.000   0.000  89.979

 ******    1 imaginary frequencies (negative Signs) ******

                     1                      2                      3
                    B2G                    B3U                    AU
 Frequencies --  -249.0047               362.2103               543.4701
 Red. masses --     1.4897                 1.1607                 1.0078
 Frc consts  --     0.0544                 0.0897                 0.1754
 IR Inten    --     0.0000                29.1394                 0.0000

                     4                      5                      6
                    B2U                    AG                     B3G
 Frequencies --   782.1659              1093.8649              1174.0608
 Red. masses --     1.0433                 3.2220                 1.4809
 Frc consts  --     0.3761                 2.2714                 1.2027
 IR Inten    --     0.8062                 0.0000                 0.0000

                     7                      8                      9
                    B1U                    AG                     B1U
 Frequencies --  1435.5108              1485.9322              3082.4061
 Red. masses --     1.1135                 1.2314                 1.0463
 Frc consts  --     1.3520                 1.6020                 5.8573
 IR Inten    --     0.1482                 0.0000                69.0249

                    10                     11                     12
                    AG                     B3G                    B2U
 Frequencies --  3099.2908              3145.9428              3173.1798
 Red. masses --     1.0578                 1.1121                 1.1170
 Frc consts  --     5.9866                 6.4846                 6.6264
 IR Inten    --     0.0000                 0.0000               139.6441

 - Thermochemistry -
 -------------------
 Temperature   298.150 Kelvin.  Pressure   1.00000 Atm.
 Atom     1 has atomic number  6 and mass  12.00000

 Molecular mass:    28.03130 amu.
 Principal axes and moments of inertia in atomic units:
                           1         2         3
     Eigenvalues --    12.33355  69.12816  81.46171
           X            0.00000   0.00000   1.00000
           Y            0.00000   1.00000   0.00000
           Z            1.00000   0.00000   0.00000
 This molecule is an asymmetric top.
 Rotational symmetry number  4.
 Rotational temperatures (Kelvin)      7.02262     1.25295     1.06325
 Rotational constants (GHZ):         146.32780    26.10718    22.15447
    1 imaginary frequencies ignored.
 Zero-point vibrational energy     115906.4 (Joules/Mol)
                                   27.70229 (Kcal/Mol)
 Warning -- explicit consideration of   2 degrees of freedom as
           vibrations may cause significant error
 Vibrational temperatures:    521.14   781.93  1125.36  1573.83  1689.21
          (Kelvin)           2065.38  2137.92  4434.89  4459.18  4526.30
                             4565.49

 Zero-point correction=                           0.044146 (Hartree/Particle)
 Thermal correction to Energy=                    0.047660
 Thermal correction to Enthalpy=                  0.048605
 Thermal correction to Gibbs Free Energy=         0.022254
 Sum of electronic and zero-point Energies=            -78.495396
 Sum of electronic and thermal Energies=               -78.491882
 Sum of electronic and thermal Enthalpies=             -78.490938
 Sum of electronic and thermal Free Energies=          -78.517289

                     E (Thermal)             CV                S
                      KCal/Mol        Cal/Mol-Kelvin    Cal/Mol-Kelvin
 Total                   29.907             10.027             55.460
 Electronic               0.000              0.000              1.377
 Translational            0.889              2.981             35.927
 Rotational               0.889              2.981             16.125
 Vibrational             28.130              4.065              2.031
 Vibration     1          0.736              1.550              1.113
 Vibration     2          0.899              1.154              0.558

 Normal termination of Gaussian 09 at Fri Apr  9 21:02:14 2021.
